<?xml version="1.0" encoding="UTF-8"?>

<!-- generated on 2022-05-13 11:14:15 by Eclipse SUMO sumo Version 1.13.0
<configuration xmlns:xsi="http://www.w3.org/2001/XMLSchema-instance" xsi:noNamespaceSchemaLocation="http://sumo.dlr.de/xsd/sumoConfiguration.xsd">

    <input>
        <net-file value="autobahn.net.xml"/>
        <route-files value="autobahn.rou.xml"/>
        <additional-files value="additional.xml"/>
    </input>

    <output>
        <fcd-output value="autobahn.xml"/>
    </output>

    <time>
        <step-length value="0.1"/>
    </time>

    <gui_only>
        <tracker-interval value="0.1"/>
    </gui_only>

</configuration>
-->

<fcd-export xmlns:xsi="http://www.w3.org/2001/XMLSchema-instance" xsi:noNamespaceSchemaLocation="http://sumo.dlr.de/xsd/fcd_file.xsd">
    <timestep time="0.00">
        <vehicle id="lane3.0" x="891.01" y="-8.00" angle="90.00" type="car" speed="10.00" pos="891.01" lane="-E0_0" slope="0.00"/>
        <vehicle id="lane3.1" x="712.49" y="-8.00" angle="90.00" type="car" speed="10.00" pos="712.49" lane="-E0_0" slope="0.00"/>
        <vehicle id="lane3.10" x="466.16" y="-8.00" angle="90.00" type="car" speed="10.00" pos="466.16" lane="-E0_0" slope="0.00"/>
        <vehicle id="lane3.11" x="566.28" y="-8.00" angle="90.00" type="car" speed="10.00" pos="566.28" lane="-E0_0" slope="0.00"/>
        <vehicle id="lane3.12" x="321.96" y="-8.00" angle="90.00" type="car" speed="10.00" pos="321.96" lane="-E0_0" slope="0.00"/>
        <vehicle id="lane3.13" x="512.97" y="-8.00" angle="90.00" type="car" speed="10.00" pos="512.97" lane="-E0_0" slope="0.00"/>
        <vehicle id="lane3.14" x="633.48" y="-8.00" angle="90.00" type="car" speed="10.00" pos="633.48" lane="-E0_0" slope="0.00"/>
        <vehicle id="lane3.15" x="939.04" y="-8.00" angle="90.00" type="car" speed="10.00" pos="939.04" lane="-E0_0" slope="0.00"/>
        <vehicle id="lane3.16" x="824.31" y="-8.00" angle="90.00" type="car" speed="10.00" pos="824.31" lane="-E0_0" slope="0.00"/>
        <vehicle id="lane3.17" x="396.58" y="-8.00" angle="90.00" type="car" speed="10.00" pos="396.58" lane="-E0_0" slope="0.00"/>
        <vehicle id="lane3.18" x="301.76" y="-8.00" angle="90.00" type="car" speed="10.00" pos="301.76" lane="-E0_0" slope="0.00"/>
        <vehicle id="lane3.19" x="764.50" y="-8.00" angle="90.00" type="car" speed="10.00" pos="764.50" lane="-E0_0" slope="0.00"/>
        <vehicle id="lane3.2" x="45.48" y="-8.00" angle="90.00" type="car" speed="10.00" pos="45.48" lane="-E0_0" slope="0.00"/>
        <vehicle id="lane3.3" x="491.45" y="-8.00" angle="90.00" type="car" speed="10.00" pos="491.45" lane="-E0_0" slope="0.00"/>
        <vehicle id="lane3.4" x="589.95" y="-8.00" angle="90.00" type="car" speed="10.00" pos="589.95" lane="-E0_0" slope="0.00"/>
        <vehicle id="lane3.5" x="743.26" y="-8.00" angle="90.00" type="car" speed="10.00" pos="743.26" lane="-E0_0" slope="0.00"/>
        <vehicle id="lane3.6" x="247.50" y="-8.00" angle="90.00" type="car" speed="10.00" pos="247.50" lane="-E0_0" slope="0.00"/>
        <vehicle id="lane3.7" x="545.28" y="-8.00" angle="90.00" type="car" speed="10.00" pos="545.28" lane="-E0_0" slope="0.00"/>
        <vehicle id="lane3.8" x="6.04" y="-8.00" angle="90.00" type="car" speed="10.00" pos="6.04" lane="-E0_0" slope="0.00"/>
        <vehicle id="lane3.9" x="673.00" y="-8.00" angle="90.00" type="car" speed="10.00" pos="673.00" lane="-E0_0" slope="0.00"/>
        <vehicle id="lane4.0" x="159.11" y="-4.80" angle="90.00" type="car" speed="10.00" pos="159.11" lane="-E0_1" slope="0.00"/>
        <vehicle id="lane4.1" x="956.59" y="-4.80" angle="90.00" type="car" speed="10.00" pos="956.59" lane="-E0_1" slope="0.00"/>
        <vehicle id="lane4.10" x="241.39" y="-4.80" angle="90.00" type="car" speed="10.00" pos="241.39" lane="-E0_1" slope="0.00"/>
        <vehicle id="lane4.11" x="811.70" y="-4.80" angle="90.00" type="car" speed="10.00" pos="811.70" lane="-E0_1" slope="0.00"/>
        <vehicle id="lane4.12" x="89.02" y="-4.80" angle="90.00" type="car" speed="10.00" pos="89.02" lane="-E0_1" slope="0.00"/>
        <vehicle id="lane4.13" x="715.56" y="-4.80" angle="90.00" type="car" speed="10.00" pos="715.56" lane="-E0_1" slope="0.00"/>
        <vehicle id="lane4.14" x="596.23" y="-4.80" angle="90.00" type="car" speed="10.00" pos="596.23" lane="-E0_1" slope="0.00"/>
        <vehicle id="lane4.15" x="935.05" y="-4.80" angle="90.00" type="car" speed="10.00" pos="935.05" lane="-E0_1" slope="0.00"/>
        <vehicle id="lane4.16" x="307.79" y="-4.80" angle="90.00" type="car" speed="10.00" pos="307.79" lane="-E0_1" slope="0.00"/>
        <vehicle id="lane4.17" x="492.57" y="-4.80" angle="90.00" type="car" speed="10.00" pos="492.57" lane="-E0_1" slope="0.00"/>
        <vehicle id="lane4.18" x="183.36" y="-4.80" angle="90.00" type="car" speed="10.00" pos="183.36" lane="-E0_1" slope="0.00"/>
        <vehicle id="lane4.19" x="641.64" y="-4.80" angle="90.00" type="car" speed="10.00" pos="641.64" lane="-E0_1" slope="0.00"/>
        <vehicle id="lane4.2" x="29.82" y="-4.80" angle="90.00" type="car" speed="10.00" pos="29.82" lane="-E0_1" slope="0.00"/>
        <vehicle id="lane4.3" x="685.07" y="-4.80" angle="90.00" type="car" speed="10.00" pos="685.07" lane="-E0_1" slope="0.00"/>
        <vehicle id="lane4.4" x="331.31" y="-4.80" angle="90.00" type="car" speed="10.00" pos="331.31" lane="-E0_1" slope="0.00"/>
        <vehicle id="lane4.5" x="129.38" y="-4.80" angle="90.00" type="car" speed="10.00" pos="129.38" lane="-E0_1" slope="0.00"/>
        <vehicle id="lane4.6" x="411.35" y="-4.80" angle="90.00" type="car" speed="10.00" pos="411.35" lane="-E0_1" slope="0.00"/>
        <vehicle id="lane4.7" x="264.07" y="-4.80" angle="90.00" type="car" speed="10.00" pos="264.07" lane="-E0_1" slope="0.00"/>
        <vehicle id="lane4.8" x="223.13" y="-4.80" angle="90.00" type="car" speed="10.00" pos="223.13" lane="-E0_1" slope="0.00"/>
        <vehicle id="lane4.9" x="571.61" y="-4.80" angle="90.00" type="car" speed="10.00" pos="571.61" lane="-E0_1" slope="0.00"/>
        <vehicle id="lane5.0" x="151.83" y="-1.60" angle="90.00" type="car" speed="10.00" pos="151.83" lane="-E0_2" slope="0.00"/>
        <vehicle id="lane5.1" x="27.84" y="-1.60" angle="90.00" type="car" speed="10.00" pos="27.84" lane="-E0_2" slope="0.00"/>
        <vehicle id="lane5.10" x="86.02" y="-1.60" angle="90.00" type="car" speed="10.00" pos="86.02" lane="-E0_2" slope="0.00"/>
        <vehicle id="lane5.11" x="567.15" y="-1.60" angle="90.00" type="car" speed="10.00" pos="567.15" lane="-E0_2" slope="0.00"/>
        <vehicle id="lane5.12" x="207.17" y="-1.60" angle="90.00" type="car" speed="10.00" pos="207.17" lane="-E0_2" slope="0.00"/>
        <vehicle id="lane5.13" x="46.84" y="-1.60" angle="90.00" type="car" speed="10.00" pos="46.84" lane="-E0_2" slope="0.00"/>
        <vehicle id="lane5.14" x="721.88" y="-1.60" angle="90.00" type="car" speed="10.00" pos="721.88" lane="-E0_2" slope="0.00"/>
        <vehicle id="lane5.15" x="678.68" y="-1.60" angle="90.00" type="car" speed="10.00" pos="678.68" lane="-E0_2" slope="0.00"/>
        <vehicle id="lane5.16" x="423.22" y="-1.60" angle="90.00" type="car" speed="10.00" pos="423.22" lane="-E0_2" slope="0.00"/>
        <vehicle id="lane5.17" x="615.12" y="-1.60" angle="90.00" type="car" speed="10.00" pos="615.12" lane="-E0_2" slope="0.00"/>
        <vehicle id="lane5.18" x="389.75" y="-1.60" angle="90.00" type="car" speed="10.00" pos="389.75" lane="-E0_2" slope="0.00"/>
        <vehicle id="lane5.19" x="512.82" y="-1.60" angle="90.00" type="car" speed="10.00" pos="512.82" lane="-E0_2" slope="0.00"/>
        <vehicle id="lane5.2" x="278.84" y="-1.60" angle="90.00" type="car" speed="10.00" pos="278.84" lane="-E0_2" slope="0.00"/>
        <vehicle id="lane5.3" x="546.77" y="-1.60" angle="90.00" type="car" speed="10.00" pos="546.77" lane="-E0_2" slope="0.00"/>
        <vehicle id="lane5.4" x="928.11" y="-1.60" angle="90.00" type="car" speed="10.00" pos="928.11" lane="-E0_2" slope="0.00"/>
        <vehicle id="lane5.5" x="66.97" y="-1.60" angle="90.00" type="car" speed="10.00" pos="66.97" lane="-E0_2" slope="0.00"/>
        <vehicle id="lane5.6" x="178.98" y="-1.60" angle="90.00" type="car" speed="10.00" pos="178.98" lane="-E0_2" slope="0.00"/>
        <vehicle id="lane5.7" x="992.27" y="-1.60" angle="90.00" type="car" speed="10.00" pos="992.27" lane="-E0_2" slope="0.00"/>
        <vehicle id="lane5.8" x="313.86" y="-1.60" angle="90.00" type="car" speed="10.00" pos="313.86" lane="-E0_2" slope="0.00"/>
        <vehicle id="lane5.9" x="339.01" y="-1.60" angle="90.00" type="car" speed="10.00" pos="339.01" lane="-E0_2" slope="0.00"/>
    </timestep>
    <timestep time="0.10">
        <vehicle id="lane3.0" x="892.02" y="-8.00" angle="90.00" type="car" speed="10.15" pos="892.02" lane="-E0_0" slope="0.00"/>
        <vehicle id="lane3.1" x="713.51" y="-8.00" angle="90.00" type="car" speed="10.19" pos="713.51" lane="-E0_0" slope="0.00"/>
        <vehicle id="lane3.10" x="467.19" y="-8.00" angle="90.00" type="car" speed="10.20" pos="467.19" lane="-E0_0" slope="0.00"/>
        <vehicle id="lane3.11" x="567.30" y="-8.00" angle="90.00" type="car" speed="10.24" pos="567.30" lane="-E0_0" slope="0.00"/>
        <vehicle id="lane3.12" x="322.98" y="-8.00" angle="90.00" type="car" speed="10.13" pos="322.98" lane="-E0_0" slope="0.00"/>
        <vehicle id="lane3.13" x="513.99" y="-8.00" angle="90.00" type="car" speed="10.24" pos="513.99" lane="-E0_0" slope="0.00"/>
        <vehicle id="lane3.14" x="634.50" y="-8.00" angle="90.00" type="car" speed="10.23" pos="634.50" lane="-E0_0" slope="0.00"/>
        <vehicle id="lane3.15" x="940.06" y="-8.00" angle="90.00" type="car" speed="10.20" pos="940.06" lane="-E0_0" slope="0.00"/>
        <vehicle id="lane3.16" x="825.33" y="-8.00" angle="90.00" type="car" speed="10.20" pos="825.33" lane="-E0_0" slope="0.00"/>
        <vehicle id="lane3.17" x="397.60" y="-8.00" angle="90.00" type="car" speed="10.24" pos="397.60" lane="-E0_0" slope="0.00"/>
        <vehicle id="lane3.18" x="302.78" y="-8.00" angle="90.00" type="car" speed="10.15" pos="302.78" lane="-E0_0" slope="0.00"/>
        <vehicle id="lane3.19" x="765.52" y="-8.00" angle="90.00" type="car" speed="10.15" pos="765.52" lane="-E0_0" slope="0.00"/>
        <vehicle id="lane3.2" x="46.50" y="-8.00" angle="90.00" type="car" speed="10.18" pos="46.50" lane="-E0_0" slope="0.00"/>
        <vehicle id="lane3.3" x="492.46" y="-8.00" angle="90.00" type="car" speed="10.14" pos="492.46" lane="-E0_0" slope="0.00"/>
        <vehicle id="lane3.4" x="590.98" y="-8.00" angle="90.00" type="car" speed="10.22" pos="590.98" lane="-E0_0" slope="0.00"/>
        <vehicle id="lane3.5" x="744.27" y="-8.00" angle="90.00" type="car" speed="10.14" pos="744.27" lane="-E0_0" slope="0.00"/>
        <vehicle id="lane3.6" x="248.53" y="-8.00" angle="90.00" type="car" speed="10.26" pos="248.53" lane="-E0_0" slope="0.00"/>
        <vehicle id="lane3.7" x="546.29" y="-8.00" angle="90.00" type="car" speed="10.17" pos="546.29" lane="-E0_0" slope="0.00"/>
        <vehicle id="lane3.8" x="7.06" y="-8.00" angle="90.00" type="car" speed="10.26" pos="7.06" lane="-E0_0" slope="0.00"/>
        <vehicle id="lane3.9" x="674.03" y="-8.00" angle="90.00" type="car" speed="10.23" pos="674.03" lane="-E0_0" slope="0.00"/>
        <vehicle id="lane4.0" x="160.13" y="-4.80" angle="90.00" type="car" speed="10.19" pos="160.13" lane="-E0_1" slope="0.00"/>
        <vehicle id="lane4.1" x="957.60" y="-4.80" angle="90.00" type="car" speed="10.14" pos="957.60" lane="-E0_1" slope="0.00"/>
        <vehicle id="lane4.10" x="242.41" y="-4.80" angle="90.00" type="car" speed="10.21" pos="242.41" lane="-E0_1" slope="0.00"/>
        <vehicle id="lane4.11" x="812.72" y="-4.80" angle="90.00" type="car" speed="10.16" pos="812.72" lane="-E0_1" slope="0.00"/>
        <vehicle id="lane4.12" x="90.05" y="-4.80" angle="90.00" type="car" speed="10.23" pos="90.05" lane="-E0_1" slope="0.00"/>
        <vehicle id="lane4.13" x="716.58" y="-4.80" angle="90.00" type="car" speed="10.21" pos="716.58" lane="-E0_1" slope="0.00"/>
        <vehicle id="lane4.14" x="597.24" y="-4.80" angle="90.00" type="car" speed="10.14" pos="597.24" lane="-E0_1" slope="0.00"/>
        <vehicle id="lane4.15" x="936.07" y="-4.80" angle="90.00" type="car" speed="10.20" pos="936.07" lane="-E0_1" slope="0.00"/>
        <vehicle id="lane4.16" x="308.81" y="-4.80" angle="90.00" type="car" speed="10.20" pos="308.81" lane="-E0_1" slope="0.00"/>
        <vehicle id="lane4.17" x="493.60" y="-4.80" angle="90.00" type="car" speed="10.25" pos="493.60" lane="-E0_1" slope="0.00"/>
        <vehicle id="lane4.18" x="184.37" y="-4.80" angle="90.00" type="car" speed="10.15" pos="184.37" lane="-E0_1" slope="0.00"/>
        <vehicle id="lane4.19" x="642.66" y="-4.80" angle="90.00" type="car" speed="10.17" pos="642.66" lane="-E0_1" slope="0.00"/>
        <vehicle id="lane4.2" x="30.85" y="-4.80" angle="90.00" type="car" speed="10.24" pos="30.85" lane="-E0_1" slope="0.00"/>
        <vehicle id="lane4.3" x="686.09" y="-4.80" angle="90.00" type="car" speed="10.24" pos="686.09" lane="-E0_1" slope="0.00"/>
        <vehicle id="lane4.4" x="332.33" y="-4.80" angle="90.00" type="car" speed="10.23" pos="332.33" lane="-E0_1" slope="0.00"/>
        <vehicle id="lane4.5" x="130.39" y="-4.80" angle="90.00" type="car" speed="10.15" pos="130.39" lane="-E0_1" slope="0.00"/>
        <vehicle id="lane4.6" x="412.37" y="-4.80" angle="90.00" type="car" speed="10.23" pos="412.37" lane="-E0_1" slope="0.00"/>
        <vehicle id="lane4.7" x="265.09" y="-4.80" angle="90.00" type="car" speed="10.17" pos="265.09" lane="-E0_1" slope="0.00"/>
        <vehicle id="lane4.8" x="224.15" y="-4.80" angle="90.00" type="car" speed="10.14" pos="224.15" lane="-E0_1" slope="0.00"/>
        <vehicle id="lane4.9" x="572.63" y="-4.80" angle="90.00" type="car" speed="10.25" pos="572.63" lane="-E0_1" slope="0.00"/>
        <vehicle id="lane5.0" x="152.85" y="-1.60" angle="90.00" type="car" speed="10.22" pos="152.85" lane="-E0_2" slope="0.00"/>
        <vehicle id="lane5.1" x="28.86" y="-1.60" angle="90.00" type="car" speed="10.18" pos="28.86" lane="-E0_2" slope="0.00"/>
        <vehicle id="lane5.10" x="87.04" y="-1.60" angle="90.00" type="car" speed="10.21" pos="87.04" lane="-E0_2" slope="0.00"/>
        <vehicle id="lane5.11" x="568.16" y="-1.60" angle="90.00" type="car" speed="10.18" pos="568.16" lane="-E0_2" slope="0.00"/>
        <vehicle id="lane5.12" x="208.18" y="-1.60" angle="90.00" type="car" speed="10.13" pos="208.18" lane="-E0_2" slope="0.00"/>
        <vehicle id="lane5.13" x="47.87" y="-1.60" angle="90.00" type="car" speed="10.22" pos="47.87" lane="-E0_2" slope="0.00"/>
        <vehicle id="lane5.14" x="722.89" y="-1.60" angle="90.00" type="car" speed="10.16" pos="722.89" lane="-E0_2" slope="0.00"/>
        <vehicle id="lane5.15" x="679.70" y="-1.60" angle="90.00" type="car" speed="10.19" pos="679.70" lane="-E0_2" slope="0.00"/>
        <vehicle id="lane5.16" x="424.24" y="-1.60" angle="90.00" type="car" speed="10.25" pos="424.24" lane="-E0_2" slope="0.00"/>
        <vehicle id="lane5.17" x="616.14" y="-1.60" angle="90.00" type="car" speed="10.25" pos="616.14" lane="-E0_2" slope="0.00"/>
        <vehicle id="lane5.18" x="390.77" y="-1.60" angle="90.00" type="car" speed="10.20" pos="390.77" lane="-E0_2" slope="0.00"/>
        <vehicle id="lane5.19" x="513.84" y="-1.60" angle="90.00" type="car" speed="10.19" pos="513.84" lane="-E0_2" slope="0.00"/>
        <vehicle id="lane5.2" x="279.86" y="-1.60" angle="90.00" type="car" speed="10.14" pos="279.86" lane="-E0_2" slope="0.00"/>
        <vehicle id="lane5.3" x="547.79" y="-1.60" angle="90.00" type="car" speed="10.18" pos="547.79" lane="-E0_2" slope="0.00"/>
        <vehicle id="lane5.4" x="929.13" y="-1.60" angle="90.00" type="car" speed="10.21" pos="929.13" lane="-E0_2" slope="0.00"/>
        <vehicle id="lane5.5" x="67.99" y="-1.60" angle="90.00" type="car" speed="10.14" pos="67.99" lane="-E0_2" slope="0.00"/>
        <vehicle id="lane5.6" x="180.00" y="-1.60" angle="90.00" type="car" speed="10.23" pos="180.00" lane="-E0_2" slope="0.00"/>
        <vehicle id="lane5.7" x="993.28" y="-1.60" angle="90.00" type="car" speed="10.13" pos="993.28" lane="-E0_2" slope="0.00"/>
        <vehicle id="lane5.8" x="314.88" y="-1.60" angle="90.00" type="car" speed="10.20" pos="314.88" lane="-E0_2" slope="0.00"/>
        <vehicle id="lane5.9" x="340.03" y="-1.60" angle="90.00" type="car" speed="10.21" pos="340.03" lane="-E0_2" slope="0.00"/>
    </timestep>
    <timestep time="0.20">
        <vehicle id="lane3.0" x="893.06" y="-8.00" angle="90.00" type="car" speed="10.37" pos="893.06" lane="-E0_0" slope="0.00"/>
        <vehicle id="lane3.1" x="714.55" y="-8.00" angle="90.00" type="car" speed="10.40" pos="714.55" lane="-E0_0" slope="0.00"/>
        <vehicle id="lane3.10" x="468.23" y="-8.00" angle="90.00" type="car" speed="10.42" pos="468.23" lane="-E0_0" slope="0.00"/>
        <vehicle id="lane3.11" x="568.35" y="-8.00" angle="90.00" type="car" speed="10.48" pos="568.35" lane="-E0_0" slope="0.00"/>
        <vehicle id="lane3.12" x="324.01" y="-8.00" angle="90.00" type="car" speed="10.37" pos="324.01" lane="-E0_0" slope="0.00"/>
        <vehicle id="lane3.13" x="515.03" y="-8.00" angle="90.00" type="car" speed="10.41" pos="515.03" lane="-E0_0" slope="0.00"/>
        <vehicle id="lane3.14" x="635.54" y="-8.00" angle="90.00" type="car" speed="10.43" pos="635.54" lane="-E0_0" slope="0.00"/>
        <vehicle id="lane3.15" x="941.10" y="-8.00" angle="90.00" type="car" speed="10.38" pos="941.10" lane="-E0_0" slope="0.00"/>
        <vehicle id="lane3.16" x="826.37" y="-8.00" angle="90.00" type="car" speed="10.42" pos="826.37" lane="-E0_0" slope="0.00"/>
        <vehicle id="lane3.17" x="398.65" y="-8.00" angle="90.00" type="car" speed="10.48" pos="398.65" lane="-E0_0" slope="0.00"/>
        <vehicle id="lane3.18" x="303.82" y="-8.00" angle="90.00" type="car" speed="10.41" pos="303.82" lane="-E0_0" slope="0.00"/>
        <vehicle id="lane3.19" x="766.55" y="-8.00" angle="90.00" type="car" speed="10.35" pos="766.55" lane="-E0_0" slope="0.00"/>
        <vehicle id="lane3.2" x="47.54" y="-8.00" angle="90.00" type="car" speed="10.41" pos="47.54" lane="-E0_0" slope="0.00"/>
        <vehicle id="lane3.3" x="493.49" y="-8.00" angle="90.00" type="car" speed="10.35" pos="493.49" lane="-E0_0" slope="0.00"/>
        <vehicle id="lane3.4" x="592.01" y="-8.00" angle="90.00" type="car" speed="10.36" pos="592.01" lane="-E0_0" slope="0.00"/>
        <vehicle id="lane3.5" x="745.31" y="-8.00" angle="90.00" type="car" speed="10.39" pos="745.31" lane="-E0_0" slope="0.00"/>
        <vehicle id="lane3.6" x="249.57" y="-8.00" angle="90.00" type="car" speed="10.42" pos="249.57" lane="-E0_0" slope="0.00"/>
        <vehicle id="lane3.7" x="547.33" y="-8.00" angle="90.00" type="car" speed="10.39" pos="547.33" lane="-E0_0" slope="0.00"/>
        <vehicle id="lane3.8" x="8.10" y="-8.00" angle="90.00" type="car" speed="10.40" pos="8.10" lane="-E0_0" slope="0.00"/>
        <vehicle id="lane3.9" x="675.07" y="-8.00" angle="90.00" type="car" speed="10.39" pos="675.07" lane="-E0_0" slope="0.00"/>
        <vehicle id="lane4.0" x="161.17" y="-4.80" angle="90.00" type="car" speed="10.42" pos="161.17" lane="-E0_1" slope="0.00"/>
        <vehicle id="lane4.1" x="958.63" y="-4.80" angle="90.00" type="car" speed="10.30" pos="958.63" lane="-E0_1" slope="0.00"/>
        <vehicle id="lane4.10" x="243.45" y="-4.80" angle="90.00" type="car" speed="10.38" pos="243.45" lane="-E0_1" slope="0.00"/>
        <vehicle id="lane4.11" x="813.75" y="-4.80" angle="90.00" type="car" speed="10.32" pos="813.75" lane="-E0_1" slope="0.00"/>
        <vehicle id="lane4.12" x="91.09" y="-4.80" angle="90.00" type="car" speed="10.42" pos="91.09" lane="-E0_1" slope="0.00"/>
        <vehicle id="lane4.13" x="717.63" y="-4.80" angle="90.00" type="car" speed="10.46" pos="717.63" lane="-E0_1" slope="0.00"/>
        <vehicle id="lane4.14" x="598.28" y="-4.80" angle="90.00" type="car" speed="10.38" pos="598.28" lane="-E0_1" slope="0.00"/>
        <vehicle id="lane4.15" x="937.11" y="-4.80" angle="90.00" type="car" speed="10.34" pos="937.11" lane="-E0_1" slope="0.00"/>
        <vehicle id="lane4.16" x="309.85" y="-4.80" angle="90.00" type="car" speed="10.41" pos="309.85" lane="-E0_1" slope="0.00"/>
        <vehicle id="lane4.17" x="494.64" y="-4.80" angle="90.00" type="car" speed="10.41" pos="494.64" lane="-E0_1" slope="0.00"/>
        <vehicle id="lane4.18" x="185.41" y="-4.80" angle="90.00" type="car" speed="10.38" pos="185.41" lane="-E0_1" slope="0.00"/>
        <vehicle id="lane4.19" x="643.69" y="-4.80" angle="90.00" type="car" speed="10.36" pos="643.69" lane="-E0_1" slope="0.00"/>
        <vehicle id="lane4.2" x="31.88" y="-4.80" angle="90.00" type="car" speed="10.37" pos="31.88" lane="-E0_1" slope="0.00"/>
        <vehicle id="lane4.3" x="687.13" y="-4.80" angle="90.00" type="car" speed="10.38" pos="687.13" lane="-E0_1" slope="0.00"/>
        <vehicle id="lane4.4" x="333.38" y="-4.80" angle="90.00" type="car" speed="10.45" pos="333.38" lane="-E0_1" slope="0.00"/>
        <vehicle id="lane4.5" x="131.43" y="-4.80" angle="90.00" type="car" speed="10.35" pos="131.43" lane="-E0_1" slope="0.00"/>
        <vehicle id="lane4.6" x="413.41" y="-4.80" angle="90.00" type="car" speed="10.44" pos="413.41" lane="-E0_1" slope="0.00"/>
        <vehicle id="lane4.7" x="266.13" y="-4.80" angle="90.00" type="car" speed="10.35" pos="266.13" lane="-E0_1" slope="0.00"/>
        <vehicle id="lane4.8" x="225.18" y="-4.80" angle="90.00" type="car" speed="10.35" pos="225.18" lane="-E0_1" slope="0.00"/>
        <vehicle id="lane4.9" x="573.68" y="-4.80" angle="90.00" type="car" speed="10.45" pos="573.68" lane="-E0_1" slope="0.00"/>
        <vehicle id="lane5.0" x="153.90" y="-1.60" angle="90.00" type="car" speed="10.45" pos="153.90" lane="-E0_2" slope="0.00"/>
        <vehicle id="lane5.1" x="29.89" y="-1.60" angle="90.00" type="car" speed="10.36" pos="29.89" lane="-E0_2" slope="0.00"/>
        <vehicle id="lane5.10" x="88.07" y="-1.60" angle="90.00" type="car" speed="10.34" pos="88.07" lane="-E0_2" slope="0.00"/>
        <vehicle id="lane5.11" x="569.21" y="-1.60" angle="90.00" type="car" speed="10.42" pos="569.21" lane="-E0_2" slope="0.00"/>
        <vehicle id="lane5.12" x="209.22" y="-1.60" angle="90.00" type="car" speed="10.39" pos="209.22" lane="-E0_2" slope="0.00"/>
        <vehicle id="lane5.13" x="48.91" y="-1.60" angle="90.00" type="car" speed="10.43" pos="48.91" lane="-E0_2" slope="0.00"/>
        <vehicle id="lane5.14" x="723.93" y="-1.60" angle="90.00" type="car" speed="10.34" pos="723.93" lane="-E0_2" slope="0.00"/>
        <vehicle id="lane5.15" x="680.74" y="-1.60" angle="90.00" type="car" speed="10.39" pos="680.74" lane="-E0_2" slope="0.00"/>
        <vehicle id="lane5.16" x="425.29" y="-1.60" angle="90.00" type="car" speed="10.46" pos="425.29" lane="-E0_2" slope="0.00"/>
        <vehicle id="lane5.17" x="617.19" y="-1.60" angle="90.00" type="car" speed="10.45" pos="617.19" lane="-E0_2" slope="0.00"/>
        <vehicle id="lane5.18" x="391.81" y="-1.60" angle="90.00" type="car" speed="10.45" pos="391.81" lane="-E0_2" slope="0.00"/>
        <vehicle id="lane5.19" x="514.88" y="-1.60" angle="90.00" type="car" speed="10.39" pos="514.88" lane="-E0_2" slope="0.00"/>
        <vehicle id="lane5.2" x="280.90" y="-1.60" angle="90.00" type="car" speed="10.40" pos="280.90" lane="-E0_2" slope="0.00"/>
        <vehicle id="lane5.3" x="548.82" y="-1.60" angle="90.00" type="car" speed="10.35" pos="548.82" lane="-E0_2" slope="0.00"/>
        <vehicle id="lane5.4" x="930.17" y="-1.60" angle="90.00" type="car" speed="10.38" pos="930.17" lane="-E0_2" slope="0.00"/>
        <vehicle id="lane5.5" x="69.03" y="-1.60" angle="90.00" type="car" speed="10.39" pos="69.03" lane="-E0_2" slope="0.00"/>
        <vehicle id="lane5.6" x="181.04" y="-1.60" angle="90.00" type="car" speed="10.44" pos="181.04" lane="-E0_2" slope="0.00"/>
        <vehicle id="lane5.7" x="994.32" y="-1.60" angle="90.00" type="car" speed="10.33" pos="994.32" lane="-E0_2" slope="0.00"/>
        <vehicle id="lane5.8" x="315.92" y="-1.60" angle="90.00" type="car" speed="10.35" pos="315.92" lane="-E0_2" slope="0.00"/>
        <vehicle id="lane5.9" x="341.08" y="-1.60" angle="90.00" type="car" speed="10.45" pos="341.08" lane="-E0_2" slope="0.00"/>
    </timestep>
    <timestep time="0.30">
        <vehicle id="lane3.0" x="894.12" y="-8.00" angle="90.00" type="car" speed="10.63" pos="894.12" lane="-E0_0" slope="0.00"/>
        <vehicle id="lane3.1" x="715.61" y="-8.00" angle="90.00" type="car" speed="10.61" pos="715.61" lane="-E0_0" slope="0.00"/>
        <vehicle id="lane3.10" x="469.28" y="-8.00" angle="90.00" type="car" speed="10.55" pos="469.28" lane="-E0_0" slope="0.00"/>
        <vehicle id="lane3.11" x="569.41" y="-8.00" angle="90.00" type="car" speed="10.64" pos="569.41" lane="-E0_0" slope="0.00"/>
        <vehicle id="lane3.12" x="325.07" y="-8.00" angle="90.00" type="car" speed="10.55" pos="325.07" lane="-E0_0" slope="0.00"/>
        <vehicle id="lane3.13" x="516.10" y="-8.00" angle="90.00" type="car" speed="10.65" pos="516.10" lane="-E0_0" slope="0.00"/>
        <vehicle id="lane3.14" x="636.61" y="-8.00" angle="90.00" type="car" speed="10.66" pos="636.61" lane="-E0_0" slope="0.00"/>
        <vehicle id="lane3.15" x="942.16" y="-8.00" angle="90.00" type="car" speed="10.59" pos="942.16" lane="-E0_0" slope="0.00"/>
        <vehicle id="lane3.16" x="827.43" y="-8.00" angle="90.00" type="car" speed="10.63" pos="827.43" lane="-E0_0" slope="0.00"/>
        <vehicle id="lane3.17" x="399.72" y="-8.00" angle="90.00" type="car" speed="10.72" pos="399.72" lane="-E0_0" slope="0.00"/>
        <vehicle id="lane3.18" x="304.88" y="-8.00" angle="90.00" type="car" speed="10.61" pos="304.88" lane="-E0_0" slope="0.00"/>
        <vehicle id="lane3.19" x="767.60" y="-8.00" angle="90.00" type="car" speed="10.51" pos="767.60" lane="-E0_0" slope="0.00"/>
        <vehicle id="lane3.2" x="48.60" y="-8.00" angle="90.00" type="car" speed="10.60" pos="48.60" lane="-E0_0" slope="0.00"/>
        <vehicle id="lane3.3" x="494.54" y="-8.00" angle="90.00" type="car" speed="10.49" pos="494.54" lane="-E0_0" slope="0.00"/>
        <vehicle id="lane3.4" x="593.07" y="-8.00" angle="90.00" type="car" speed="10.55" pos="593.07" lane="-E0_0" slope="0.00"/>
        <vehicle id="lane3.5" x="746.37" y="-8.00" angle="90.00" type="car" speed="10.60" pos="746.37" lane="-E0_0" slope="0.00"/>
        <vehicle id="lane3.6" x="250.63" y="-8.00" angle="90.00" type="car" speed="10.61" pos="250.63" lane="-E0_0" slope="0.00"/>
        <vehicle id="lane3.7" x="548.39" y="-8.00" angle="90.00" type="car" speed="10.62" pos="548.39" lane="-E0_0" slope="0.00"/>
        <vehicle id="lane3.8" x="9.16" y="-8.00" angle="90.00" type="car" speed="10.56" pos="9.16" lane="-E0_0" slope="0.00"/>
        <vehicle id="lane3.9" x="676.12" y="-8.00" angle="90.00" type="car" speed="10.56" pos="676.12" lane="-E0_0" slope="0.00"/>
        <vehicle id="lane4.0" x="162.24" y="-4.80" angle="90.00" type="car" speed="10.67" pos="162.24" lane="-E0_1" slope="0.00"/>
        <vehicle id="lane4.1" x="959.68" y="-4.80" angle="90.00" type="car" speed="10.45" pos="959.68" lane="-E0_1" slope="0.00"/>
        <vehicle id="lane4.10" x="244.51" y="-4.80" angle="90.00" type="car" speed="10.60" pos="244.51" lane="-E0_1" slope="0.00"/>
        <vehicle id="lane4.11" x="814.79" y="-4.80" angle="90.00" type="car" speed="10.45" pos="814.79" lane="-E0_1" slope="0.00"/>
        <vehicle id="lane4.12" x="92.15" y="-4.80" angle="90.00" type="car" speed="10.65" pos="92.15" lane="-E0_1" slope="0.00"/>
        <vehicle id="lane4.13" x="718.69" y="-4.80" angle="90.00" type="car" speed="10.63" pos="718.69" lane="-E0_1" slope="0.00"/>
        <vehicle id="lane4.14" x="599.34" y="-4.80" angle="90.00" type="car" speed="10.61" pos="599.34" lane="-E0_1" slope="0.00"/>
        <vehicle id="lane4.15" x="938.16" y="-4.80" angle="90.00" type="car" speed="10.49" pos="938.16" lane="-E0_1" slope="0.00"/>
        <vehicle id="lane4.16" x="310.91" y="-4.80" angle="90.00" type="car" speed="10.62" pos="310.91" lane="-E0_1" slope="0.00"/>
        <vehicle id="lane4.17" x="495.69" y="-4.80" angle="90.00" type="car" speed="10.56" pos="495.69" lane="-E0_1" slope="0.00"/>
        <vehicle id="lane4.18" x="186.46" y="-4.80" angle="90.00" type="car" speed="10.54" pos="186.46" lane="-E0_1" slope="0.00"/>
        <vehicle id="lane4.19" x="644.75" y="-4.80" angle="90.00" type="car" speed="10.57" pos="644.75" lane="-E0_1" slope="0.00"/>
        <vehicle id="lane4.2" x="32.94" y="-4.80" angle="90.00" type="car" speed="10.53" pos="32.94" lane="-E0_1" slope="0.00"/>
        <vehicle id="lane4.3" x="688.19" y="-4.80" angle="90.00" type="car" speed="10.55" pos="688.19" lane="-E0_1" slope="0.00"/>
        <vehicle id="lane4.4" x="334.43" y="-4.80" angle="90.00" type="car" speed="10.59" pos="334.43" lane="-E0_1" slope="0.00"/>
        <vehicle id="lane4.5" x="132.48" y="-4.80" angle="90.00" type="car" speed="10.54" pos="132.48" lane="-E0_1" slope="0.00"/>
        <vehicle id="lane4.6" x="414.48" y="-4.80" angle="90.00" type="car" speed="10.63" pos="414.48" lane="-E0_1" slope="0.00"/>
        <vehicle id="lane4.7" x="267.18" y="-4.80" angle="90.00" type="car" speed="10.52" pos="267.18" lane="-E0_1" slope="0.00"/>
        <vehicle id="lane4.8" x="226.23" y="-4.80" angle="90.00" type="car" speed="10.46" pos="226.23" lane="-E0_1" slope="0.00"/>